! AWR Design Environment (6079) Mon Jan 19 09:55:49 2015
! Simulator: 
! Ports: 2, Freqs: 1001
# GHz S RI R 50
!-----------------------------------------------------------------------------
!Freq          ReS11        ImS11        ReS21        ImS21        ReS12        ImS12        ReS22        ImS22
 0.01         0.0011549   -1.7994e-5    0.99884     -0.00041392   0.99884     -0.00041392   0.0011549   -1.7994e-5   
 0.06         0.0011548   -0.00014612   0.99884     -0.0024164    0.99884     -0.0024164    0.0011548   -0.00014612  
 0.11         0.0011545   -0.0002743    0.99883     -0.0044191    0.99883     -0.0044191    0.0011545   -0.0002743   
 0.16         0.0011541   -0.00040256   0.99882     -0.006422     0.99882     -0.006422     0.0011541   -0.00040256  
 0.21         0.0011536   -0.0005309    0.99881     -0.0084251    0.99881     -0.0084251    0.0011536   -0.00053089  
 0.26         0.0011528   -0.00065931   0.99878     -0.010428     0.99878     -0.010428     0.0011528   -0.00065931  
 0.31         0.0011519   -0.00078782   0.99876     -0.012432     0.99876     -0.012432     0.0011519   -0.00078782  
 0.36         0.0011509   -0.00091641   0.99873     -0.014436     0.99873     -0.014436     0.0011509   -0.00091641  
 0.41         0.0011497   -0.0010451    0.99869     -0.01644      0.99869     -0.01644      0.0011497   -0.0010451   
 0.46         0.0011483   -0.0011739    0.99865     -0.018444     0.99865     -0.018444     0.0011483   -0.0011739   
 0.51         0.0011468   -0.0013028    0.99861     -0.020448     0.99861     -0.020448     0.0011468   -0.0013028   
 0.56         0.0011451   -0.0014318    0.99856     -0.022453     0.99856     -0.022453     0.0011451   -0.0014318   
 0.61         0.0011432   -0.001561     0.99851     -0.024458     0.99851     -0.024458     0.0011432   -0.001561    
 0.66         0.0011412   -0.0016902    0.99845     -0.026463     0.99845     -0.026463     0.0011412   -0.0016902   
 0.71         0.001139    -0.0018196    0.99839     -0.028468     0.99839     -0.028468     0.001139    -0.0018196   
 0.76         0.0011366   -0.0019492    0.99833     -0.030473     0.99833     -0.030473     0.0011366   -0.0019492   
 0.81         0.0011341   -0.0020788    0.99825     -0.032479     0.99825     -0.032479     0.0011341   -0.0020788   
 0.86         0.0011313   -0.0022086    0.99818     -0.034484     0.99818     -0.034484     0.0011313   -0.0022086   
 0.91         0.0011284   -0.0023386    0.9981      -0.03649      0.9981      -0.03649      0.0011284   -0.0023386   
 0.96         0.0011253   -0.0024687    0.99802     -0.038496     0.99802     -0.038496     0.0011253   -0.0024687   
 1.01         0.001122    -0.0025989    0.99793     -0.040502     0.99793     -0.040502     0.001122    -0.0025989   
 1.06         0.0011185   -0.0027293    0.99783     -0.042509     0.99783     -0.042509     0.0011185   -0.0027293   
 1.11         0.0011148   -0.0028599    0.99774     -0.044515     0.99774     -0.044515     0.0011148   -0.0028599   
 1.16         0.0011108   -0.0029907    0.99763     -0.046521     0.99763     -0.046521     0.0011109   -0.0029907   
 1.21         0.0011067   -0.0031216    0.99753     -0.048528     0.99753     -0.048528     0.0011068   -0.0031216   
 1.26         0.0011024   -0.0032526    0.99742     -0.050535     0.99742     -0.050535     0.0011024   -0.0032526   
 1.31         0.0010978   -0.0033839    0.9973      -0.052541     0.9973      -0.052541     0.0010979   -0.0033839   
 1.36         0.001093    -0.0035153    0.99718     -0.054548     0.99718     -0.054548     0.0010931   -0.0035153   
 1.41         0.001088    -0.0036469    0.99706     -0.056555     0.99706     -0.056555     0.0010881   -0.0036469   
 1.46         0.0010828   -0.0037787    0.99693     -0.058562     0.99693     -0.058562     0.0010828   -0.0037787   
 1.51         0.0010773   -0.0039106    0.99679     -0.060569     0.99679     -0.060569     0.0010774   -0.0039106   
 1.56         0.0010716   -0.0040428    0.99666     -0.062576     0.99666     -0.062576     0.0010716   -0.0040428   
 1.61         0.0010656   -0.0041751    0.99651     -0.064584     0.99651     -0.064584     0.0010657   -0.0041751   
 1.66         0.0010594   -0.0043076    0.99637     -0.066591     0.99637     -0.066591     0.0010594   -0.0043076   
 1.71         0.0010529   -0.0044403    0.99622     -0.068598     0.99622     -0.068598     0.0010529   -0.0044403   
 1.76         0.0010461   -0.0045732    0.99606     -0.070605     0.99606     -0.070605     0.0010462   -0.0045732   
 1.81         0.0010391   -0.0047063    0.9959      -0.072612     0.9959      -0.072612     0.0010391   -0.0047063   
 1.86         0.0010317   -0.0048396    0.99574     -0.07462      0.99574     -0.07462      0.0010318   -0.0048396   
 1.91         0.0010241   -0.0049731    0.99557     -0.076627     0.99557     -0.076627     0.0010242   -0.0049731   
 1.96         0.0010162   -0.0051067    0.9954      -0.078634     0.9954      -0.078634     0.0010163   -0.0051067   
 2.01         0.001008    -0.0052406    0.99522     -0.080641     0.99522     -0.080641     0.0010081   -0.0052406   
 2.06         0.00099954  -0.0053746    0.99504     -0.082648     0.99504     -0.082648     0.00099963  -0.0053746   
 2.11         0.00099073  -0.0055089    0.99485     -0.084655     0.99485     -0.084655     0.00099083  -0.0055089   
 2.16         0.00098161  -0.0056433    0.99466     -0.086662     0.99466     -0.086662     0.0009817   -0.0056433   
 2.21         0.00097216  -0.0057779    0.99447     -0.088669     0.99447     -0.088669     0.00097226  -0.0057779   
 2.26         0.00096238  -0.0059127    0.99427     -0.090676     0.99427     -0.090676     0.00096249  -0.0059127   
 2.31         0.00095227  -0.0060477    0.99406     -0.092682     0.99406     -0.092682     0.00095238  -0.0060477   
 2.36         0.00094181  -0.0061829    0.99386     -0.094689     0.99386     -0.094689     0.00094192  -0.0061829   
 2.41         0.000931    -0.0063182    0.99364     -0.096695     0.99364     -0.096695     0.00093112  -0.0063183   
 2.46         0.00091984  -0.0064538    0.99343     -0.098701     0.99343     -0.098701     0.00091997  -0.0064538   
 2.51         0.00090832  -0.0065895    0.99321     -0.10071      0.99321     -0.10071      0.00090845  -0.0065895   
 2.56         0.00089643  -0.0067254    0.99298     -0.10271      0.99298     -0.10271      0.00089657  -0.0067254   
 2.61         0.00088417  -0.0068615    0.99275     -0.10472      0.99275     -0.10472      0.00088431  -0.0068615   
 2.66         0.00087152  -0.0069978    0.99252     -0.10672      0.99252     -0.10672      0.00087167  -0.0069978   
 2.71         0.00085849  -0.0071342    0.99228     -0.10873      0.99228     -0.10873      0.00085864  -0.0071342   
 2.76         0.00084506  -0.0072708    0.99204     -0.11073      0.99204     -0.11073      0.00084522  -0.0072708   
 2.81         0.00083124  -0.0074075    0.99179     -0.11274      0.99179     -0.11274      0.0008314   -0.0074075   
 2.86         0.00081701  -0.0075444    0.99154     -0.11474      0.99154     -0.11474      0.00081718  -0.0075445   
 2.91         0.00080236  -0.0076815    0.99129     -0.11675      0.99129     -0.11675      0.00080254  -0.0076815   
 2.96         0.0007873   -0.0078187    0.99103     -0.11875      0.99103     -0.11875      0.00078748  -0.0078188   
 3.01         0.00077181  -0.0079561    0.99077     -0.12075      0.99077     -0.12075      0.000772    -0.0079562   
 3.06         0.00075589  -0.0080937    0.9905      -0.12276      0.9905      -0.12276      0.00075609  -0.0080937   
 3.11         0.00073954  -0.0082313    0.99023     -0.12476      0.99023     -0.12476      0.00073974  -0.0082314   
 3.16         0.00072274  -0.0083691    0.98995     -0.12676      0.98995     -0.12676      0.00072295  -0.0083692   
 3.21         0.0007055   -0.0085071    0.98967     -0.12876      0.98967     -0.12876      0.00070571  -0.0085071   
 3.26         0.0006878   -0.0086451    0.98939     -0.13077      0.98939     -0.13077      0.00068802  -0.0086452   
 3.31         0.00066964  -0.0087833    0.9891      -0.13277      0.9891      -0.13277      0.00066986  -0.0087834   
 3.36         0.00065101  -0.0089216    0.98881     -0.13477      0.98881     -0.13477      0.00065124  -0.0089217   
 3.41         0.00063191  -0.0090601    0.98851     -0.13677      0.98851     -0.13677      0.00063215  -0.0090601   
 3.46         0.00061234  -0.0091986    0.98821     -0.13877      0.98821     -0.13877      0.00061259  -0.0091986   
 3.51         0.00059228  -0.0093372    0.98791     -0.14077      0.98791     -0.14077      0.00059254  -0.0093373   
 3.56         0.00057174  -0.009476     0.9876      -0.14277      0.9876      -0.14277      0.000572    -0.009476    
 3.61         0.0005507   -0.0096148    0.98728     -0.14476      0.98728     -0.14476      0.00055097  -0.0096149   
 3.66         0.00052917  -0.0097537    0.98697     -0.14676      0.98697     -0.14676      0.00052944  -0.0097538   
 3.71         0.00050713  -0.0098927    0.98665     -0.14876      0.98665     -0.14876      0.00050741  -0.0098928   
 3.76         0.00048458  -0.010032     0.98632     -0.15076      0.98632     -0.15076      0.00048488  -0.010032    
 3.81         0.00046153  -0.010171     0.98599     -0.15275      0.98599     -0.15275      0.00046183  -0.010171    
 3.86         0.00043795  -0.01031      0.98566     -0.15475      0.98566     -0.15475      0.00043826  -0.01031     
 3.91         0.00041385  -0.010449     0.98532     -0.15674      0.98532     -0.15674      0.00041417  -0.010449    
 3.96         0.00038923  -0.010589     0.98498     -0.15874      0.98498     -0.15874      0.00038955  -0.010589    
 4.01         0.00036407  -0.010728     0.98464     -0.16073      0.98464     -0.16073      0.0003644   -0.010728    
 4.06         0.00033838  -0.010867     0.98429     -0.16272      0.98429     -0.16272      0.00033872  -0.010868    
 4.11         0.00031215  -0.011007     0.98394     -0.16472      0.98394     -0.16472      0.0003125   -0.011007    
 4.16         0.00028538  -0.011146     0.98358     -0.16671      0.98358     -0.16671      0.00028573  -0.011146    
 4.21         0.00025806  -0.011286     0.98322     -0.1687       0.98322     -0.1687       0.00025842  -0.011286    
 4.26         0.00023018  -0.011425     0.98285     -0.17069      0.98285     -0.17069      0.00023056  -0.011425    
 4.31         0.00020176  -0.011565     0.98249     -0.17268      0.98249     -0.17268      0.00020214  -0.011565    
 4.36         0.00017277  -0.011704     0.98211     -0.17467      0.98211     -0.17467      0.00017316  -0.011704    
 4.41         0.00014322  -0.011844     0.98174     -0.17666      0.98174     -0.17666      0.00014362  -0.011844    
 4.46         0.00011311  -0.011983     0.98136     -0.17864      0.98136     -0.17864      0.00011352  -0.011983    
 4.51         8.2427e-5   -0.012123     0.98097     -0.18063      0.98097     -0.18063      8.2843e-5   -0.012123    
 4.56         5.1172e-5   -0.012262     0.98058     -0.18261      0.98058     -0.18261      5.1598e-5   -0.012262    
 4.61         1.9343e-5   -0.012402     0.98019     -0.1846       0.98019     -0.1846       1.9778e-5   -0.012402    
 4.66        -1.3064e-5   -0.012541     0.9798      -0.18658      0.9798      -0.18658     -1.2619e-5   -0.012541    
 4.71        -4.6052e-5   -0.01268      0.9794      -0.18857      0.9794      -0.18857     -4.5598e-5   -0.01268     
 4.76        -7.9622e-5   -0.012819     0.97899     -0.19055      0.97899     -0.19055     -7.9159e-5   -0.01282     
 4.81        -0.00011378  -0.012959     0.97859     -0.19253      0.97859     -0.19253     -0.00011331  -0.012959    
 4.86        -0.00014852  -0.013098     0.97818     -0.19451      0.97818     -0.19451     -0.00014804  -0.013098    
 4.91        -0.00018386  -0.013237     0.97776     -0.19649      0.97776     -0.19649     -0.00018337  -0.013237    
 4.96        -0.00021979  -0.013376     0.97734     -0.19847      0.97734     -0.19847     -0.00021928  -0.013376    
 5.01        -0.00025631  -0.013515     0.97692     -0.20045      0.97692     -0.20045     -0.0002558   -0.013515    
 5.06        -0.00029343  -0.013653     0.97649     -0.20242      0.97649     -0.20242     -0.00029291  -0.013653    
 5.11        -0.00033115  -0.013792     0.97606     -0.2044       0.97606     -0.2044      -0.00033061  -0.013792    
 5.16        -0.00036946  -0.013931     0.97563     -0.20637      0.97563     -0.20637     -0.00036892  -0.013931    
 5.21        -0.00040838  -0.014069     0.97519     -0.20834      0.97519     -0.20834     -0.00040783  -0.014069    
 5.26        -0.00044791  -0.014207     0.97475     -0.21032      0.97475     -0.21032     -0.00044734  -0.014207    
 5.31        -0.00048804  -0.014345     0.97431     -0.21229      0.97431     -0.21229     -0.00048746  -0.014346    
 5.36        -0.00052877  -0.014484     0.97386     -0.21426      0.97386     -0.21426     -0.00052819  -0.014484    
 5.41        -0.00057011  -0.014621     0.9734      -0.21623      0.9734      -0.21623     -0.00056952  -0.014622    
 5.46        -0.00061206  -0.014759     0.97295     -0.2182       0.97295     -0.2182      -0.00061146  -0.014759    
 5.51        -0.00065462  -0.014897     0.97249     -0.22016      0.97249     -0.22016     -0.000654    -0.014897    
 5.56        -0.00069779  -0.015034     0.97202     -0.22213      0.97202     -0.22213     -0.00069716  -0.015034    
 5.61        -0.00074157  -0.015171     0.97156     -0.22409      0.97156     -0.22409     -0.00074093  -0.015171    
 5.66        -0.00078596  -0.015308     0.97109     -0.22606      0.97109     -0.22606     -0.00078531  -0.015309    
 5.71        -0.00083096  -0.015445     0.97061     -0.22802      0.97061     -0.22802     -0.0008303   -0.015445    
 5.76        -0.00087658  -0.015582     0.97013     -0.22998      0.97013     -0.22998     -0.00087591  -0.015582    
 5.81        -0.00092281  -0.015718     0.96965     -0.23194      0.96965     -0.23194     -0.00092212  -0.015719    
 5.86        -0.00096965  -0.015855     0.96917     -0.2339       0.96917     -0.2339      -0.00096895  -0.015855    
 5.91        -0.0010171   -0.015991     0.96868     -0.23586      0.96868     -0.23586     -0.0010164   -0.015991    
 5.96        -0.0010652   -0.016127     0.96818     -0.23781      0.96818     -0.23781     -0.0010645   -0.016127    
 6.01        -0.0011138   -0.016262     0.96769     -0.23977      0.96769     -0.23977     -0.0011131   -0.016262    
 6.06        -0.0011631   -0.016398     0.96719     -0.24172      0.96719     -0.24172     -0.0011624   -0.016398    
 6.11        -0.001213    -0.016533     0.96668     -0.24367      0.96668     -0.24367     -0.0012123   -0.016533    
 6.16        -0.0012636   -0.016668     0.96617     -0.24563      0.96617     -0.24563     -0.0012628   -0.016668    
 6.21        -0.0013147   -0.016802     0.96566     -0.24757      0.96566     -0.24757     -0.0013139   -0.016802    
 6.26        -0.0013664   -0.016937     0.96515     -0.24952      0.96515     -0.24952     -0.0013657   -0.016937    
 6.31        -0.0014188   -0.017071     0.96463     -0.25147      0.96463     -0.25147     -0.001418    -0.017071    
 6.36        -0.0014717   -0.017205     0.96411     -0.25342      0.96411     -0.25342     -0.0014709   -0.017205    
 6.41        -0.0015252   -0.017338     0.96358     -0.25536      0.96358     -0.25536     -0.0015244   -0.017338    
 6.46        -0.0015793   -0.017472     0.96305     -0.2573       0.96305     -0.2573      -0.0015785   -0.017472    
 6.51        -0.001634    -0.017605     0.96252     -0.25925      0.96252     -0.25925     -0.0016332   -0.017605    
 6.56        -0.0016893   -0.017737     0.96198     -0.26119      0.96198     -0.26119     -0.0016884   -0.017737    
 6.61        -0.0017451   -0.01787      0.96144     -0.26313      0.96144     -0.26313     -0.0017442   -0.01787     
 6.66        -0.0018015   -0.018002     0.9609      -0.26506      0.9609      -0.26506     -0.0018007   -0.018002    
 6.71        -0.0018586   -0.018134     0.96035     -0.267        0.96035     -0.267       -0.0018577   -0.018134    
 6.76        -0.0019161   -0.018265     0.9598      -0.26894      0.9598      -0.26894     -0.0019152   -0.018265    
 6.81        -0.0019743   -0.018396     0.95924     -0.27087      0.95924     -0.27087     -0.0019734   -0.018396    
 6.86        -0.0020331   -0.018527     0.95869     -0.2728       0.95869     -0.2728      -0.0020321   -0.018527    
 6.91        -0.0020924   -0.018658     0.95812     -0.27473      0.95812     -0.27473     -0.0020914   -0.018658    
 6.96        -0.0021523   -0.018788     0.95756     -0.27666      0.95756     -0.27666     -0.0021513   -0.018788    
 7.01        -0.0022127   -0.018918     0.95699     -0.27859      0.95699     -0.27859     -0.0022117   -0.018918    
 7.06        -0.0022738   -0.019047     0.95641     -0.28051      0.95641     -0.28051     -0.0022728   -0.019047    
 7.11        -0.0023354   -0.019176     0.95584     -0.28244      0.95584     -0.28244     -0.0023344   -0.019176    
 7.16        -0.0023975   -0.019305     0.95526     -0.28436      0.95526     -0.28436     -0.0023965   -0.019305    
 7.21        -0.0024603   -0.019433     0.95467     -0.28628      0.95467     -0.28628     -0.0024592   -0.019434    
 7.26        -0.0025236   -0.019561     0.95408     -0.2882       0.95408     -0.2882      -0.0025225   -0.019562    
 7.31        -0.0025874   -0.019689     0.95349     -0.29012      0.95349     -0.29012     -0.0025864   -0.019689    
 7.36        -0.0026518   -0.019816     0.9529      -0.29204      0.9529      -0.29204     -0.0026508   -0.019817    
 7.41        -0.0027168   -0.019943     0.9523      -0.29396      0.9523      -0.29396     -0.0027157   -0.019943    
 7.46        -0.0027824   -0.02007      0.9517      -0.29587      0.9517      -0.29587     -0.0027813   -0.02007     
 7.51        -0.0028484   -0.020196     0.95109     -0.29778      0.95109     -0.29778     -0.0028473   -0.020196    
 7.56        -0.0029151   -0.020322     0.95048     -0.29969      0.95048     -0.29969     -0.002914    -0.020322    
 7.61        -0.0029823   -0.020447     0.94987     -0.3016       0.94987     -0.3016      -0.0029811   -0.020447    
 7.66        -0.00305     -0.020572     0.94925     -0.30351      0.94925     -0.30351     -0.0030489   -0.020572    
 7.71        -0.0031183   -0.020696     0.94863     -0.30542      0.94863     -0.30542     -0.0031171   -0.020697    
 7.76        -0.0031871   -0.020821     0.948       -0.30732      0.948       -0.30732     -0.0031859   -0.020821    
 7.81        -0.0032565   -0.020944     0.94738     -0.30922      0.94738     -0.30922     -0.0032553   -0.020945    
 7.86        -0.0033264   -0.021068     0.94674     -0.31113      0.94674     -0.31113     -0.0033252   -0.021068    
 7.91        -0.0033969   -0.02119      0.94611     -0.31303      0.94611     -0.31303     -0.0033956   -0.021191    
 7.96        -0.0034678   -0.021313     0.94547     -0.31492      0.94547     -0.31492     -0.0034666   -0.021313    
 8.01        -0.0035394   -0.021435     0.94483     -0.31682      0.94483     -0.31682     -0.0035381   -0.021435    
 8.06        -0.0036114   -0.021556     0.94418     -0.31872      0.94418     -0.31872     -0.0036101   -0.021557    
 8.11        -0.003684    -0.021678     0.94353     -0.32061      0.94353     -0.32061     -0.0036827   -0.021678    
 8.16        -0.0037571   -0.021798     0.94287     -0.3225       0.94287     -0.3225      -0.0037558   -0.021799    
 8.21        -0.0038307   -0.021919     0.94222     -0.32439      0.94222     -0.32439     -0.0038294   -0.021919    
 8.26        -0.0039048   -0.022039     0.94155     -0.32628      0.94155     -0.32628     -0.0039035   -0.022039    
 8.31        -0.0039795   -0.022158     0.94089     -0.32817      0.94089     -0.32817     -0.0039781   -0.022158    
 8.36        -0.0040547   -0.022277     0.94022     -0.33005      0.94022     -0.33005     -0.0040533   -0.022277    
 8.41        -0.0041304   -0.022395     0.93955     -0.33194      0.93955     -0.33194     -0.004129    -0.022396    
 8.46        -0.0042066   -0.022513     0.93887     -0.33382      0.93887     -0.33382     -0.0042052   -0.022514    
 8.51        -0.0042833   -0.022631     0.93819     -0.3357       0.93819     -0.3357      -0.0042818   -0.022631    
 8.56        -0.0043605   -0.022748     0.93751     -0.33758      0.93751     -0.33758     -0.004359    -0.022749    
 8.61        -0.0044382   -0.022865     0.93682     -0.33946      0.93682     -0.33946     -0.0044367   -0.022865    
 8.66        -0.0045164   -0.022981     0.93613     -0.34133      0.93613     -0.34133     -0.0045149   -0.022981    
 8.71        -0.0045951   -0.023097     0.93543     -0.3432       0.93543     -0.3432      -0.0045936   -0.023097    
 8.76        -0.0046743   -0.023212     0.93473     -0.34508      0.93473     -0.34508     -0.0046728   -0.023212    
 8.81        -0.004754    -0.023327     0.93403     -0.34695      0.93403     -0.34695     -0.0047525   -0.023327    
 8.86        -0.0048342   -0.023441     0.93332     -0.34882      0.93332     -0.34882     -0.0048326   -0.023442    
 8.91        -0.0049148   -0.023555     0.93261     -0.35068      0.93261     -0.35068     -0.0049133   -0.023555    
 8.96        -0.004996    -0.023668     0.9319      -0.35255      0.9319      -0.35255     -0.0049944   -0.023669    
 9.01        -0.0050776   -0.023781     0.93118     -0.35441      0.93118     -0.35441     -0.005076    -0.023782    
 9.06        -0.0051597   -0.023893     0.93046     -0.35628      0.93046     -0.35628     -0.0051581   -0.023894    
 9.11        -0.0052423   -0.024005     0.92973     -0.35814      0.92973     -0.35814     -0.0052407   -0.024006    
 9.16        -0.0053253   -0.024117     0.929       -0.35999      0.929       -0.35999     -0.0053237   -0.024117    
 9.21        -0.0054088   -0.024228     0.92827     -0.36185      0.92827     -0.36185     -0.0054072   -0.024228    
 9.26        -0.0054928   -0.024338     0.92753     -0.36371      0.92753     -0.36371     -0.0054912   -0.024339    
 9.31        -0.0055773   -0.024448     0.92679     -0.36556      0.92679     -0.36556     -0.0055756   -0.024448    
 9.36        -0.0056622   -0.024557     0.92605     -0.36741      0.92605     -0.36741     -0.0056605   -0.024558    
 9.41        -0.0057475   -0.024666     0.9253      -0.36926      0.9253      -0.36926     -0.0057458   -0.024667    
 9.46        -0.0058333   -0.024775     0.92454     -0.37111      0.92454     -0.37111     -0.0058316   -0.024775    
 9.51        -0.0059196   -0.024882     0.92379     -0.37296      0.92379     -0.37296     -0.0059178   -0.024883    
 9.56        -0.0060063   -0.02499      0.92303     -0.3748       0.92303     -0.3748      -0.0060045   -0.024991    
 9.61        -0.0060934   -0.025097     0.92226     -0.37665      0.92226     -0.37665     -0.0060917   -0.025097    
 9.66        -0.006181    -0.025203     0.92149     -0.37849      0.92149     -0.37849     -0.0061792   -0.025204    
 9.71        -0.006269    -0.025309     0.92072     -0.38033      0.92072     -0.38033     -0.0062672   -0.02531     
 9.76        -0.0063575   -0.025414     0.91995     -0.38217      0.91995     -0.38217     -0.0063557   -0.025415    
 9.81        -0.0064464   -0.025519     0.91917     -0.384        0.91917     -0.384       -0.0064445   -0.02552     
 9.86        -0.0065357   -0.025624     0.91838     -0.38584      0.91838     -0.38584     -0.0065338   -0.025624    
 9.91        -0.0066254   -0.025727     0.91759     -0.38767      0.91759     -0.38767     -0.0066236   -0.025728    
 9.96        -0.0067156   -0.025831     0.9168      -0.3895       0.9168      -0.3895      -0.0067137   -0.025831    
 10.01       -0.0068062   -0.025933     0.91601     -0.39133      0.91601     -0.39133     -0.0068043   -0.025934    
 10.06       -0.0068972   -0.026036     0.91521     -0.39316      0.91521     -0.39316     -0.0068953   -0.026036    
 10.11       -0.0069886   -0.026137     0.9144      -0.39499      0.9144      -0.39499     -0.0069866   -0.026138    
 10.16       -0.0070804   -0.026239     0.9136      -0.39681      0.9136      -0.39681     -0.0070784   -0.026239    
 10.21       -0.0071726   -0.026339     0.91278     -0.39863      0.91278     -0.39863     -0.0071706   -0.02634     
 10.26       -0.0072652   -0.026439     0.91197     -0.40045      0.91197     -0.40045     -0.0072632   -0.02644     
 10.31       -0.0073582   -0.026539     0.91115     -0.40227      0.91115     -0.40227     -0.0073562   -0.02654     
 10.36       -0.0074516   -0.026638     0.91033     -0.40409      0.91033     -0.40409     -0.0074496   -0.026639    
 10.41       -0.0075454   -0.026737     0.9095      -0.40591      0.9095      -0.40591     -0.0075434   -0.026737    
 10.46       -0.0076396   -0.026835     0.90867     -0.40772      0.90867     -0.40772     -0.0076376   -0.026835    
 10.51       -0.0077342   -0.026932     0.90783     -0.40953      0.90783     -0.40953     -0.0077321   -0.026933    
 10.56       -0.0078292   -0.027029     0.90699     -0.41134      0.90699     -0.41134     -0.0078271   -0.02703     
 10.61       -0.0079245   -0.027125     0.90615     -0.41315      0.90615     -0.41315     -0.0079224   -0.027126    
 10.66       -0.0080202   -0.027221     0.9053      -0.41496      0.9053      -0.41496     -0.0080181   -0.027222    
 10.71       -0.0081163   -0.027317     0.90445     -0.41676      0.90445     -0.41676     -0.0081141   -0.027317    
 10.76       -0.0082127   -0.027411     0.90359     -0.41857      0.90359     -0.41857     -0.0082105   -0.027412    
 10.81       -0.0083095   -0.027506     0.90273     -0.42037      0.90273     -0.42037     -0.0083073   -0.027507    
 10.86       -0.0084067   -0.027599     0.90187     -0.42217      0.90187     -0.42217     -0.0084045   -0.0276      
 10.91       -0.0085042   -0.027692     0.901       -0.42397      0.901       -0.42397     -0.008502    -0.027693    
 10.96       -0.0086021   -0.027785     0.90013     -0.42576      0.90013     -0.42576     -0.0085998   -0.027786    
 11.01       -0.0087003   -0.027877     0.89925     -0.42756      0.89925     -0.42756     -0.008698    -0.027878    
 11.06       -0.0087988   -0.027969     0.89837     -0.42935      0.89837     -0.42935     -0.0087966   -0.02797     
 11.11       -0.0088978   -0.028059     0.89749     -0.43114      0.89749     -0.43114     -0.0088955   -0.028061    
 11.16       -0.008997    -0.02815      0.8966      -0.43293      0.8966      -0.43293     -0.0089947   -0.028151    
 11.21       -0.0090966   -0.02824      0.89571     -0.43472      0.89571     -0.43472     -0.0090943   -0.028241    
 11.26       -0.0091965   -0.028329     0.89482     -0.43651      0.89482     -0.43651     -0.0091941   -0.02833     
 11.31       -0.0092967   -0.028418     0.89392     -0.43829      0.89392     -0.43829     -0.0092944   -0.028419    
 11.36       -0.0093973   -0.028506     0.89301     -0.44007      0.89301     -0.44007     -0.0093949   -0.028507    
 11.41       -0.0094982   -0.028594     0.8921      -0.44185      0.8921      -0.44185     -0.0094958   -0.028595    
 11.46       -0.0095994   -0.028681     0.89119     -0.44363      0.89119     -0.44363     -0.009597    -0.028682    
 11.51       -0.0097009   -0.028767     0.89028     -0.44541      0.89028     -0.44541     -0.0096984   -0.028768    
 11.56       -0.0098027   -0.028853     0.88935     -0.44718      0.88935     -0.44718     -0.0098002   -0.028854    
 11.61       -0.0099048   -0.028938     0.88843     -0.44895      0.88843     -0.44895     -0.0099023   -0.02894     
 11.66       -0.010007    -0.029023     0.8875      -0.45073      0.8875      -0.45073     -0.010005    -0.029025    
 11.71       -0.01011     -0.029108     0.88657     -0.4525       0.88657     -0.4525      -0.010107    -0.029109    
 11.76       -0.010213    -0.029191     0.88563     -0.45426      0.88563     -0.45426     -0.01021     -0.029193    
 11.81       -0.010316    -0.029274     0.88469     -0.45603      0.88469     -0.45603     -0.010314    -0.029276    
 11.86       -0.01042     -0.029357     0.88375     -0.45779      0.88375     -0.45779     -0.010417    -0.029358    
 11.91       -0.010524    -0.029439     0.8828      -0.45955      0.8828      -0.45955     -0.010521    -0.02944     
 11.96       -0.010628    -0.02952      0.88185     -0.46132      0.88185     -0.46132     -0.010625    -0.029522    
 12.01       -0.010732    -0.029601     0.88089     -0.46307      0.88089     -0.46307     -0.01073     -0.029603    
 12.06       -0.010837    -0.029681     0.87993     -0.46483      0.87993     -0.46483     -0.010834    -0.029683    
 12.11       -0.010942    -0.029761     0.87897     -0.46658      0.87897     -0.46658     -0.010939    -0.029762    
 12.16       -0.011047    -0.02984      0.878       -0.46834      0.878       -0.46834     -0.011045    -0.029842    
 12.21       -0.011153    -0.029919     0.87702     -0.47009      0.87702     -0.47009     -0.01115     -0.02992     
 12.26       -0.011258    -0.029997     0.87605     -0.47184      0.87605     -0.47184     -0.011256    -0.029998    
 12.31       -0.011364    -0.030074     0.87507     -0.47358      0.87507     -0.47358     -0.011362    -0.030076    
 12.36       -0.011471    -0.030151     0.87408     -0.47533      0.87408     -0.47533     -0.011468    -0.030152    
 12.41       -0.011577    -0.030227     0.87309     -0.47707      0.87309     -0.47707     -0.011574    -0.030229    
 12.46       -0.011684    -0.030303     0.8721      -0.47882      0.8721      -0.47882     -0.011681    -0.030304    
 12.51       -0.011791    -0.030378     0.8711      -0.48055      0.8711      -0.48055     -0.011788    -0.030379    