! AWR Design Environment (6079) Mon Jan 19 09:55:49 2015
! Simulator: 
! Ports: 2, Freqs: 1001
# GHz S RI R 50
!-----------------------------------------------------------------------------
!Freq          ReS11        ImS11        ReS21        ImS21        ReS12        ImS12        ReS22        ImS22
 0.01         0.028136     0.0015355    0.97176     -0.0022327    0.97176     -0.0022327    0.028135     0.0015379   
 0.06         0.028265     0.0091124    0.97163     -0.013294     0.97163     -0.013294     0.02826      0.0091293   
 0.11         0.028579     0.016683     0.9713      -0.024349     0.9713      -0.024349     0.028562     0.016715    
 0.16         0.029078     0.024243     0.97078     -0.035394     0.97078     -0.035394     0.029042     0.02429     
 0.21         0.029761     0.031787     0.97006     -0.046423     0.97006     -0.046423     0.029698     0.03185     
 0.26         0.030627     0.03931      0.96916     -0.057431     0.96916     -0.057431     0.030531     0.03939     
 0.31         0.031676     0.046807     0.96806     -0.068414     0.96806     -0.068414     0.03154      0.046906    
 0.36         0.032906     0.054273     0.96677     -0.079366     0.96677     -0.079366     0.032723     0.054392    
 0.41         0.034317     0.061704     0.9653      -0.090284     0.9653      -0.090284     0.03408      0.061844    
 0.46         0.035906     0.069094     0.96363     -0.10116      0.96363     -0.10116      0.035609     0.069258    
 0.51         0.037674     0.076439     0.96178     -0.11199      0.96178     -0.11199      0.037309     0.076629    
 0.56         0.039617     0.083734     0.95975     -0.12278      0.95975     -0.12278      0.039179     0.083953    
 0.61         0.041734     0.090975     0.95753     -0.13351      0.95753     -0.13351      0.041215     0.091225    
 0.66         0.044024     0.098156     0.95513     -0.14418      0.95513     -0.14418      0.043418     0.098441    
 0.71         0.046483     0.10527      0.95255     -0.15479      0.95255     -0.15479      0.045785     0.1056      
 0.76         0.049111     0.11233      0.9498      -0.16534      0.9498      -0.16534      0.048313     0.11269     
 0.81         0.051904     0.1193       0.94687     -0.17581      0.94687     -0.17581      0.051        0.11971     
 0.86         0.05486      0.12621      0.94377     -0.18621      0.94377     -0.18621      0.053845     0.12666     
 0.91         0.057976     0.13303      0.9405      -0.19653      0.9405      -0.19653      0.056844     0.13354     
 0.96         0.06125      0.13977      0.93706     -0.20677      0.93706     -0.20677      0.059995     0.14033     
 1.01         0.064679     0.14642      0.93346     -0.21692      0.93346     -0.21692      0.063295     0.14705     
 1.06         0.06826      0.15298      0.9297      -0.22699      0.9297      -0.22699      0.066741     0.15367     
 1.11         0.071989     0.15945      0.92577     -0.23696      0.92577     -0.23696      0.070331     0.16021     
 1.16         0.075863     0.16582      0.9217      -0.24683      0.9217      -0.24683      0.074062     0.16665     
 1.21         0.079881     0.17208      0.91747     -0.2566       0.91747     -0.2566       0.077929     0.173       
 1.26         0.084036     0.17824      0.91309     -0.26628      0.91309     -0.26628      0.081932     0.17925     
 1.31         0.088328     0.1843       0.90857     -0.27584      0.90857     -0.27584      0.086065     0.18539     
 1.36         0.092752     0.19024      0.90391     -0.2853       0.90391     -0.2853       0.090325     0.19143     
 1.41         0.097304     0.19607      0.8991      -0.29464      0.8991      -0.29464      0.09471      0.19736     
 1.46         0.10198      0.20179      0.89417     -0.30387      0.89417     -0.30387      0.099217     0.20319     
 1.51         0.10678      0.20738      0.8891      -0.31299      0.8891      -0.31299      0.10384      0.2089      
 1.56         0.1117       0.21286      0.8839      -0.32199      0.8839      -0.32199      0.10858      0.21449     
 1.61         0.11673      0.21821      0.87858     -0.33086      0.87858     -0.33086      0.11343      0.21997     
 1.66         0.12187      0.22344      0.87314     -0.33962      0.87314     -0.33962      0.11838      0.22533     
 1.71         0.12711      0.22854      0.86758     -0.34824      0.86758     -0.34824      0.12344      0.23057     
 1.76         0.13246      0.23352      0.8619      -0.35675      0.8619      -0.35675      0.1286       0.23569     
 1.81         0.13791      0.23836      0.85612     -0.36512      0.85612     -0.36512      0.13385      0.24069     
 1.86         0.14345      0.24307      0.85023     -0.37337      0.85023     -0.37337      0.1392       0.24556     
 1.91         0.14909      0.24765      0.84424     -0.38148      0.84424     -0.38148      0.14463      0.25031     
 1.96         0.15481      0.2521       0.83816     -0.38947      0.83816     -0.38947      0.15015      0.25493     
 2.01         0.16061      0.25641      0.83197     -0.39732      0.83197     -0.39732      0.15576      0.25942     
 2.06         0.1665       0.26059      0.8257      -0.40503      0.8257      -0.40503      0.16144      0.26378     
 2.11         0.17246      0.26463      0.81934     -0.41261      0.81934     -0.41261      0.16719      0.26801     
 2.16         0.17849      0.26853      0.81289     -0.42006      0.81289     -0.42006      0.17302      0.27211     
 2.21         0.18459      0.27229      0.80637     -0.42737      0.80637     -0.42737      0.17891      0.27608     
 2.26         0.19076      0.27591      0.79976     -0.43454      0.79976     -0.43454      0.18487      0.27991     
 2.31         0.19698      0.2794       0.79309     -0.44158      0.79309     -0.44158      0.19089      0.28362     
 2.36         0.20327      0.28274      0.78634     -0.44847      0.78634     -0.44847      0.19696      0.28719     
 2.41         0.20961      0.28595      0.77953     -0.45523      0.77953     -0.45523      0.20309      0.29064     
 2.46         0.21599      0.28902      0.77266     -0.46186      0.77266     -0.46186      0.20927      0.29394     
 2.51         0.22243      0.29195      0.76573     -0.46834      0.76573     -0.46834      0.21549      0.29712     
 2.56         0.22891      0.29473      0.75874     -0.47469      0.75874     -0.47469      0.22176      0.30017     
 2.61         0.23543      0.29738      0.7517      -0.4809       0.7517      -0.4809       0.22807      0.30308     
 2.66         0.24198      0.2999       0.74461     -0.48697      0.74461     -0.48697      0.23442      0.30586     
 2.71         0.24857      0.30227      0.73748     -0.49291      0.73748     -0.49291      0.2408       0.30851     
 2.76         0.25519      0.3045       0.7303      -0.49871      0.7303      -0.49871      0.24721      0.31103     
 2.81         0.26184      0.3066       0.72308     -0.50437      0.72308     -0.50437      0.25365      0.31342     
 2.86         0.26851      0.30856      0.71583     -0.5099       0.71583     -0.5099       0.26012      0.31567     
 2.91         0.2752       0.31039      0.70854     -0.5153       0.70854     -0.5153       0.26661      0.3178      
 2.96         0.2819       0.31208      0.70122     -0.52056      0.70122     -0.52056      0.27311      0.3198      
 3.01         0.28863      0.31364      0.69387     -0.52568      0.69387     -0.52568      0.27964      0.32168     
 3.06         0.29536      0.31506      0.6865      -0.53068      0.6865      -0.53068      0.28617      0.32343     
 3.11         0.30211      0.31635      0.67911     -0.53554      0.67911     -0.53554      0.29272      0.32505     
 3.16         0.30886      0.31751      0.67169     -0.54028      0.67169     -0.54028      0.29928      0.32655     
 3.21         0.31561      0.31854      0.66426     -0.54488      0.66426     -0.54488      0.30585      0.32792     
 3.26         0.32237      0.31944      0.65682     -0.54936      0.65682     -0.54936      0.31242      0.32917     
 3.31         0.32912      0.32021      0.64936     -0.5537       0.64936     -0.5537       0.31898      0.3303      
 3.36         0.33587      0.32086      0.64189     -0.55793      0.64189     -0.55793      0.32555      0.33131     
 3.41         0.34261      0.32138      0.63442     -0.56202      0.63442     -0.56202      0.33212      0.3322      
 3.46         0.34935      0.32177      0.62694     -0.566        0.62694     -0.566        0.33868      0.33297     
 3.51         0.35607      0.32204      0.61945     -0.56985      0.61945     -0.56985      0.34523      0.33362     
 3.56         0.36278      0.3222       0.61197     -0.57358      0.61197     -0.57358      0.35177      0.33416     
 3.61         0.36948      0.32223      0.60449     -0.57719      0.60449     -0.57719      0.35831      0.33459     
 3.66         0.37616      0.32214      0.59701     -0.58068      0.59701     -0.58068      0.36482      0.3349      
 3.71         0.38282      0.32194      0.58954     -0.58405      0.58954     -0.58405      0.37133      0.3351      
 3.76         0.38946      0.32162      0.58207     -0.58731      0.58207     -0.58731      0.37781      0.33519     
 3.81         0.39607      0.32118      0.57461     -0.59045      0.57461     -0.59045      0.38428      0.33517     
 3.86         0.40266      0.32063      0.56717     -0.59348      0.56717     -0.59348      0.39072      0.33504     
 3.91         0.40923      0.31997      0.55973     -0.5964       0.55973     -0.5964       0.39714      0.33481     
 3.96         0.41576      0.31921      0.55231     -0.59921      0.55231     -0.59921      0.40354      0.33448     
 4.01         0.42226      0.31833      0.54491     -0.60191      0.54491     -0.60191      0.40992      0.33404     
 4.06         0.42874      0.31735      0.53752     -0.6045       0.53752     -0.6045       0.41626      0.3335      
 4.11         0.43518      0.31626      0.53016     -0.60699      0.53016     -0.60699      0.42258      0.33286     
 4.16         0.44158      0.31506      0.52281     -0.60937      0.52281     -0.60937      0.42887      0.33212     
 4.21         0.44795      0.31377      0.51548     -0.61165      0.51548     -0.61165      0.43512      0.33128     
 4.26         0.45428      0.31238      0.50818     -0.61382      0.50818     -0.61382      0.44134      0.33035     
 4.31         0.46057      0.31088      0.5009      -0.6159       0.5009      -0.6159       0.44753      0.32932     
 4.36         0.46683      0.30929      0.49365     -0.61788      0.49365     -0.61788      0.45369      0.3282      
 4.41         0.47304      0.3076       0.48643     -0.61976      0.48643     -0.61976      0.4598       0.32699     
 4.46         0.4792       0.30582      0.47923     -0.62155      0.47923     -0.62155      0.46588      0.32569     
 4.51         0.48533      0.30395      0.47206     -0.62324      0.47206     -0.62324      0.47193      0.3243      
 4.56         0.49141      0.30199      0.46492     -0.62484      0.46492     -0.62484      0.47793      0.32282     
 4.61         0.49744      0.29993      0.45782     -0.62635      0.45782     -0.62635      0.48389      0.32126     
 4.66         0.50343      0.29779      0.45074     -0.62777      0.45074     -0.62777      0.48981      0.31961     
 4.71         0.50937      0.29556      0.4437      -0.6291       0.4437      -0.6291       0.49569      0.31788     
 4.76         0.51526      0.29325      0.43669     -0.63035      0.43669     -0.63035      0.50153      0.31607     
 4.81         0.5211       0.29085      0.42972     -0.63151      0.42972     -0.63151      0.50732      0.31419     
 4.86         0.52689      0.28837      0.42278     -0.63258      0.42278     -0.63258      0.51307      0.31222     
 4.91         0.53263      0.28582      0.41588     -0.63357      0.41588     -0.63357      0.51877      0.31017     
 4.96         0.53832      0.28318      0.40902     -0.63449      0.40902     -0.63449      0.52443      0.30805     
 5.01         0.54396      0.28047      0.40219     -0.63532      0.40219     -0.63532      0.53004      0.30586     
 5.06         0.54954      0.27768      0.39541     -0.63607      0.39541     -0.63607      0.5356       0.30359     
 5.11         0.55507      0.27481      0.38866     -0.63675      0.38866     -0.63675      0.54111      0.30126     
 5.16         0.56054      0.27188      0.38195     -0.63735      0.38195     -0.63735      0.54658      0.29885     
 5.21         0.56596      0.26887      0.37528     -0.63788      0.37528     -0.63788      0.552        0.29637     
 5.26         0.57133      0.26579      0.36865     -0.63834      0.36865     -0.63834      0.55736      0.29383     
 5.31         0.57663      0.26264      0.36207     -0.63872      0.36207     -0.63872      0.56268      0.29122     
 5.36         0.58189      0.25943      0.35552     -0.63904      0.35552     -0.63904      0.56795      0.28855     
 5.41         0.58708      0.25615      0.34902     -0.63928      0.34902     -0.63928      0.57317      0.28581     
 5.46         0.59222      0.25281      0.34256     -0.63946      0.34256     -0.63946      0.57833      0.28302     
 5.51         0.5973       0.2494       0.33614     -0.63957      0.33614     -0.63957      0.58345      0.28016     
 5.56         0.60232      0.24593      0.32977     -0.63962      0.32977     -0.63962      0.58851      0.27724     
 5.61         0.60728      0.24241      0.32343     -0.63961      0.32343     -0.63961      0.59352      0.27426     
 5.66         0.61219      0.23882      0.31715     -0.63953      0.31715     -0.63953      0.59848      0.27123     
 5.71         0.61703      0.23518      0.3109      -0.63939      0.3109      -0.63939      0.60338      0.26814     
 5.76         0.62182      0.23148      0.30471     -0.63919      0.30471     -0.63919      0.60823      0.26499     
 5.81         0.62655      0.22772      0.29855     -0.63893      0.29855     -0.63893      0.61303      0.2618      
 5.86         0.63121      0.22391      0.29244     -0.63861      0.29244     -0.63861      0.61778      0.25855     
 5.91         0.63582      0.22005      0.28638     -0.63824      0.28638     -0.63824      0.62247      0.25525     
 5.96         0.64037      0.21614      0.28036     -0.63782      0.28036     -0.63782      0.62711      0.2519      
 6.01         0.64486      0.21217      0.27439     -0.63733      0.27439     -0.63733      0.63169      0.2485      
 6.06         0.64928      0.20816      0.26846     -0.6368       0.26846     -0.6368       0.63623      0.24505     
 6.11         0.65365      0.2041       0.26258     -0.63621      0.26258     -0.63621      0.6407       0.24156     
 6.16         0.65796      0.2          0.25674     -0.63558      0.25674     -0.63558      0.64513      0.23802     
 6.21         0.6622       0.19585      0.25095     -0.63489      0.25095     -0.63489      0.64949      0.23444     
 6.26         0.66639      0.19165      0.24521     -0.63416      0.24521     -0.63416      0.65381      0.23081     
 6.31         0.67051      0.18741      0.23951     -0.63337      0.23951     -0.63337      0.65807      0.22715     
 6.36         0.67458      0.18313      0.23386     -0.63254      0.23386     -0.63254      0.66228      0.22344     
 6.41         0.67858      0.17881      0.22825     -0.63167      0.22825     -0.63167      0.66643      0.21969     
 6.46         0.68252      0.17445      0.22269     -0.63075      0.22269     -0.63075      0.67053      0.2159      
 6.51         0.68641      0.17005      0.21717     -0.62979      0.21717     -0.62979      0.67457      0.21207     
 6.56         0.69023      0.16561      0.2117      -0.62878      0.2117      -0.62878      0.67856      0.20821     
 6.61         0.69399      0.16114      0.20628     -0.62773      0.20628     -0.62773      0.68249      0.2043      
 6.66         0.69769      0.15663      0.2009      -0.62665      0.2009      -0.62665      0.68637      0.20037     
 6.71         0.70133      0.15209      0.19557     -0.62552      0.19557     -0.62552      0.6902       0.1964      
 6.76         0.70491      0.14751      0.19029     -0.62435      0.19029     -0.62435      0.69397      0.19239     
 6.81         0.70843      0.1429       0.18505     -0.62315      0.18505     -0.62315      0.69769      0.18836     
 6.86         0.71189      0.13826      0.17985     -0.6219       0.17985     -0.6219       0.70136      0.18429     
 6.91         0.71529      0.13358      0.1747      -0.62063      0.1747      -0.62063      0.70497      0.18019     
 6.96         0.71863      0.12888      0.1696      -0.61931      0.1696      -0.61931      0.70852      0.17606     
 7.01         0.72191      0.12415      0.16454     -0.61796      0.16454     -0.61796      0.71203      0.1719      
 7.06         0.72513      0.11939      0.15953     -0.61658      0.15953     -0.61658      0.71548      0.16771     
 7.11         0.72829      0.1146       0.15456     -0.61517      0.15456     -0.61517      0.71888      0.16349     
 7.16         0.73139      0.10979      0.14964     -0.61372      0.14964     -0.61372      0.72222      0.15925     
 7.21         0.73443      0.10495      0.14476     -0.61224      0.14476     -0.61224      0.72551      0.15498     
 7.26         0.73742      0.10009      0.13993     -0.61073      0.13993     -0.61073      0.72875      0.15069     
 7.31         0.74034      0.095198     0.13514     -0.60919      0.13514     -0.60919      0.73194      0.14637     
 7.36         0.74321      0.090288     0.13039     -0.60763      0.13039     -0.60763      0.73507      0.14203     
 7.41         0.74601      0.085355     0.12569     -0.60603      0.12569     -0.60603      0.73815      0.13766     
 7.46         0.74876      0.080402     0.12103     -0.60441      0.12103     -0.60441      0.74118      0.13328     
 7.51         0.75145      0.075427     0.11642     -0.60275      0.11642     -0.60275      0.74416      0.12887     
 7.56         0.75409      0.070433     0.11185     -0.60108      0.11185     -0.60108      0.74709      0.12444     
 7.61         0.75666      0.06542      0.10733     -0.59937      0.10733     -0.59937      0.74996      0.11999     
 7.66         0.75918      0.060388     0.10284     -0.59765      0.10284     -0.59765      0.75279      0.11552     
 7.71         0.76164      0.055339     0.098401    -0.5959       0.098401    -0.5959       0.75556      0.11103     
 7.76         0.76405      0.050272     0.094004    -0.59412      0.094004    -0.59412      0.75828      0.10652     
 7.81         0.7664       0.04519      0.089648    -0.59232      0.089648    -0.59232      0.76095      0.102       
 7.86         0.76869      0.040092     0.085335    -0.5905       0.085335    -0.5905       0.76357      0.097454    
 7.91         0.77092      0.034979     0.081065    -0.58866      0.081065    -0.58866      0.76614      0.092896    
 7.96         0.7731       0.029852     0.076835    -0.58679      0.076835    -0.58679      0.76866      0.088323    
 8.01         0.77523      0.024711     0.072648    -0.58491      0.072648    -0.58491      0.77113      0.083734    
 8.06         0.7773       0.019558     0.068502    -0.58301      0.068502    -0.58301      0.77355      0.07913     
 8.11         0.77931      0.014392     0.064397    -0.58108      0.064397    -0.58108      0.77593      0.074513    
 8.16         0.78127      0.0092148    0.060333    -0.57914      0.060333    -0.57914      0.77825      0.069882    
 8.21         0.78317      0.0040264    0.056309    -0.57718      0.056309    -0.57718      0.78052      0.065238    
 8.26         0.78502     -0.0011724    0.052326    -0.5752       0.052326    -0.5752       0.78275      0.060582    
 8.31         0.78682     -0.006381     0.048383    -0.5732       0.048383    -0.5732       0.78493      0.055914    
 8.36         0.78856     -0.011599     0.04448     -0.57119      0.04448     -0.57119      0.78706      0.051235    
 8.41         0.79025     -0.016825     0.040617    -0.56916      0.040617    -0.56916      0.78914      0.046545    
 8.46         0.79189     -0.02206      0.036793    -0.56712      0.036793    -0.56712      0.79117      0.041845    
 8.51         0.79347     -0.027302     0.033008    -0.56506      0.033008    -0.56506      0.79316      0.037136    
 8.56         0.795       -0.032552     0.029262    -0.56299      0.029262    -0.56299      0.7951       0.032417    
 8.61         0.79648     -0.037807     0.025555    -0.5609       0.025555    -0.5609       0.797        0.027689    
 8.66         0.7979      -0.043069     0.021886    -0.5588       0.021886    -0.5588       0.79884      0.022953    
 8.71         0.79928     -0.048336     0.018256    -0.55668      0.018256    -0.55668      0.80064      0.018209    
 8.76         0.8006      -0.053608     0.014663    -0.55455      0.014663    -0.55455      0.8024       0.013458    
 8.81         0.80187     -0.058885     0.011108    -0.55241      0.011108    -0.55241      0.80411      0.0086999   
 8.86         0.80309     -0.064165     0.0075898   -0.55026      0.0075898   -0.55026      0.80577      0.0039354   
 8.91         0.80426     -0.069449     0.0041091   -0.54809      0.0041091   -0.54809      0.80739     -0.00083513  
 8.96         0.80538     -0.074736     0.00066517  -0.54592      0.00066517  -0.54592      0.80896     -0.0056113   
 9.01         0.80645     -0.080026    -0.0027422   -0.54373     -0.0027422   -0.54373      0.81049     -0.010393    
 9.06         0.80747     -0.085317    -0.0061132   -0.54153     -0.0061132   -0.54153      0.81198     -0.015179    
 9.11         0.80844     -0.090611    -0.0094481   -0.53933     -0.0094481   -0.53933      0.81342     -0.019969    
 9.16         0.80936     -0.095905    -0.012747    -0.53711     -0.012747    -0.53711      0.81481     -0.024763    
 9.21         0.81024     -0.1012      -0.016011    -0.53488     -0.016011    -0.53488      0.81617     -0.029561    
 9.26         0.81106     -0.1065      -0.019239    -0.53265     -0.019239    -0.53265      0.81748     -0.034363    
 9.31         0.81184     -0.11179     -0.022433    -0.5304      -0.022433    -0.5304       0.81874     -0.039167    
 9.36         0.81256     -0.11709     -0.025591    -0.52815     -0.025591    -0.52815      0.81997     -0.043973    
 9.41         0.81324     -0.12238     -0.028716    -0.52589     -0.028716    -0.52589      0.82115     -0.048782    
 9.46         0.81388     -0.12767     -0.031806    -0.52363     -0.031806    -0.52363      0.82229     -0.053592    
 9.51         0.81446     -0.13296     -0.034862    -0.52135     -0.034862    -0.52135      0.82339     -0.058404    
 9.56         0.815       -0.13825     -0.037884    -0.51907     -0.037884    -0.51907      0.82444     -0.063216    
 9.61         0.81549     -0.14354     -0.040873    -0.51678     -0.040873    -0.51678      0.82546     -0.06803     
 9.66         0.81594     -0.14882     -0.043829    -0.51449     -0.043829    -0.51449      0.82643     -0.072844    
 9.71         0.81634     -0.15411     -0.046752    -0.51219     -0.046752    -0.51219      0.82736     -0.077657    
 9.76         0.81669     -0.15938     -0.049642    -0.50989     -0.049642    -0.50989      0.82825     -0.082471    
 9.81         0.817       -0.16466     -0.0525      -0.50758     -0.0525      -0.50758      0.8291      -0.087284    
 9.86         0.81727     -0.16993     -0.055325    -0.50526     -0.055325    -0.50526      0.82991     -0.092096    
 9.91         0.81749     -0.17519     -0.058119    -0.50294     -0.058119    -0.50294      0.83069     -0.096907    
 9.96         0.81766     -0.18045     -0.060881    -0.50061     -0.060881    -0.50061      0.83142     -0.10172     
 10.01        0.81779     -0.1857      -0.063612    -0.49829     -0.063612    -0.49829      0.83211     -0.10652     
 10.06        0.81788     -0.19095     -0.066312    -0.49595     -0.066312    -0.49595      0.83276     -0.11133     
 10.11        0.81792     -0.1962      -0.068981    -0.49362     -0.068981    -0.49362      0.83337     -0.11613     
 10.16        0.81792     -0.20143     -0.071619    -0.49128     -0.071619    -0.49128      0.83395     -0.12093     
 10.21        0.81788     -0.20667     -0.074227    -0.48893     -0.074227    -0.48893      0.83449     -0.12573     
 10.26        0.81779     -0.21189     -0.076805    -0.48659     -0.076805    -0.48659      0.83499     -0.13053     
 10.31        0.81766     -0.21711     -0.079353    -0.48424     -0.079353    -0.48424      0.83545     -0.13532     
 10.36        0.81749     -0.22232     -0.081871    -0.48189     -0.081871    -0.48189      0.83587     -0.14011     
 10.41        0.81728     -0.22752     -0.08436     -0.47953     -0.08436     -0.47953      0.83625     -0.14489     
 10.46        0.81703     -0.23271     -0.08682     -0.47718     -0.08682     -0.47718      0.8366      -0.14967     
 10.51        0.81673     -0.2379      -0.089251    -0.47482     -0.089251    -0.47482      0.83691     -0.15444     
 10.56        0.81639     -0.24308     -0.091654    -0.47246     -0.091654    -0.47246      0.83719     -0.15921     
 10.61        0.81602     -0.24825     -0.094028    -0.4701      -0.094028    -0.4701       0.83743     -0.16398     
 10.66        0.8156      -0.25341     -0.096374    -0.46774     -0.096374    -0.46774      0.83763     -0.16874     
 10.71        0.81514     -0.25856     -0.098692    -0.46538     -0.098692    -0.46538      0.8378      -0.1735      
 10.76        0.81464     -0.2637      -0.10098     -0.46301     -0.10098     -0.46301      0.83793     -0.17825     
 10.81        0.8141      -0.26883     -0.10325     -0.46065     -0.10325     -0.46065      0.83802     -0.18299     
 10.86        0.81353     -0.27395     -0.10548     -0.45829     -0.10548     -0.45829      0.83808     -0.18773     
 10.91        0.81291     -0.27906     -0.10769     -0.45592     -0.10769     -0.45592      0.83811     -0.19246     
 10.96        0.81225     -0.28416     -0.10987     -0.45356     -0.10987     -0.45356      0.8381      -0.19719     
 11.01        0.81156     -0.28925     -0.11203     -0.45119     -0.11203     -0.45119      0.83806     -0.20191     
 11.06        0.81083     -0.29433     -0.11416     -0.44883     -0.11416     -0.44883      0.83798     -0.20662     
 11.11        0.81006     -0.2994      -0.11626     -0.44647     -0.11626     -0.44647      0.83787     -0.21132     
 11.16        0.80925     -0.30446     -0.11834     -0.4441      -0.11834     -0.4441       0.83772     -0.21602     
 11.21        0.8084      -0.30951     -0.12039     -0.44174     -0.12039     -0.44174      0.83754     -0.22071     
 11.26        0.80752     -0.31454     -0.12242     -0.43938     -0.12242     -0.43938      0.83733     -0.22539     
 11.31        0.8066      -0.31956     -0.12442     -0.43702     -0.12442     -0.43702      0.83708     -0.23007     
 11.36        0.80564     -0.32457     -0.1264      -0.43466     -0.1264      -0.43466      0.8368      -0.23474     
 11.41        0.80465     -0.32957     -0.12835     -0.43231     -0.12835     -0.43231      0.83649     -0.2394      
 11.46        0.80361     -0.33456     -0.13028     -0.42995     -0.13028     -0.42995      0.83615     -0.24405     
 11.51        0.80255     -0.33953     -0.13218     -0.4276      -0.13218     -0.4276       0.83577     -0.24869     
 11.56        0.80145     -0.34449     -0.13406     -0.42525     -0.13406     -0.42525      0.83536     -0.25333     
 11.61        0.80031     -0.34944     -0.13591     -0.4229      -0.13591     -0.4229       0.83492     -0.25795     
 11.66        0.79913     -0.35437     -0.13775     -0.42055     -0.13775     -0.42055      0.83445     -0.26257     
 11.71        0.79792     -0.35929     -0.13955     -0.4182      -0.13955     -0.4182       0.83395     -0.26718     
 11.76        0.79668     -0.3642      -0.14134     -0.41586     -0.14134     -0.41586      0.83341     -0.27178     
 11.81        0.7954      -0.36909     -0.1431      -0.41352     -0.1431      -0.41352      0.83285     -0.27636     
 11.86        0.79409     -0.37397     -0.14484     -0.41118     -0.14484     -0.41118      0.83225     -0.28094     
 11.91        0.79274     -0.37883     -0.14656     -0.40885     -0.14656     -0.40885      0.83163     -0.28552     
 11.96        0.79136     -0.38368     -0.14825     -0.40652     -0.14825     -0.40652      0.83097     -0.29008     
 12.01        0.78995     -0.38852     -0.14993     -0.40419     -0.14993     -0.40419      0.83028     -0.29463     
 12.06        0.7885      -0.39334     -0.15158     -0.40186     -0.15158     -0.40186      0.82957     -0.29917     
 12.11        0.78702     -0.39815     -0.15321     -0.39954     -0.15321     -0.39954      0.82882     -0.3037      
 12.16        0.78551     -0.40294     -0.15481     -0.39722     -0.15481     -0.39722      0.82804     -0.30822     
 12.21        0.78396     -0.40772     -0.1564      -0.3949      -0.1564      -0.3949       0.82724     -0.31273     
 12.26        0.78238     -0.41248     -0.15797     -0.39259     -0.15797     -0.39259      0.8264      -0.31723     
 12.31        0.78077     -0.41722     -0.15951     -0.39028     -0.15951     -0.39028      0.82554     -0.32171     
 12.36        0.77913     -0.42195     -0.16103     -0.38798     -0.16103     -0.38798      0.82465     -0.32619     
 12.41        0.77745     -0.42667     -0.16254     -0.38567     -0.16254     -0.38567      0.82373     -0.33066     
 12.46        0.77574     -0.43137     -0.16402     -0.38338     -0.16402     -0.38338      0.82278     -0.33511     
 12.51        0.77401     -0.43605     -0.16548     -0.38108     -0.16548     -0.38108      0.8218      -0.33956     