! AWR Design Environment (6079) Mon Jan 19 09:55:49 2015
! Simulator: 
! Ports: 2, Freqs: 1001
# GHz S RI R 50
!-----------------------------------------------------------------------------
!Freq          ReS11        ImS11        ReS21        ImS21        ReS12        ImS12        ReS22        ImS22
 0.01         0.00083708  -2.4751e-5    0.99906     -0.00028964   0.99906     -0.00028964   0.00083708  -2.4751e-5   
 0.06         0.00083967  -0.00016312   0.99906     -0.0016662    0.99906     -0.0016662    0.00083967  -0.00016312  
 0.11         0.0008468   -0.00030361   0.99904     -0.0030712    0.99904     -0.0030712    0.0008468   -0.00030361  
 0.16         0.00085791  -0.00044607   0.99901     -0.0045008    0.99901     -0.0045008    0.00085791  -0.00044607  
 0.21         0.00087219  -0.0005902    0.99897     -0.0059489    0.99897     -0.0059489    0.00087218  -0.0005902   
 0.26         0.00088856  -0.00073558   0.99892     -0.0074076    0.99892     -0.0074076    0.00088856  -0.00073558  
 0.31         0.00090587  -0.0008817    0.99888     -0.0088681    0.99888     -0.0088681    0.00090586  -0.0008817   
 0.36         0.00092291  -0.001028     0.99885     -0.010322     0.99885     -0.010322     0.00092291  -0.001028    
 0.41         0.0009386   -0.0011741    0.99882     -0.01176      0.99882     -0.01176      0.00093859  -0.0011741   
 0.46         0.00095203  -0.0013196    0.99881     -0.013177     0.99881     -0.013177     0.00095203  -0.0013196   
 0.51         0.00096259  -0.0014642    0.99881     -0.014569     0.99881     -0.014569     0.00096259  -0.0014642   
 0.56         0.00097175  -0.0016088    0.99882     -0.015948     0.99882     -0.015948     0.00097175  -0.0016088   
 0.61         0.00098115  -0.0017546    0.99882     -0.017331     0.99882     -0.017331     0.00098115  -0.0017546   
 0.66         0.00099067  -0.0019014    0.99883     -0.018715     0.99883     -0.018715     0.00099067  -0.0019014   
 0.71         0.0010002   -0.0020493    0.99883     -0.020102     0.99883     -0.020102     0.0010002   -0.0020493   
 0.76         0.0010096   -0.0021982    0.99884     -0.021492     0.99884     -0.021492     0.0010096   -0.0021982   
 0.81         0.0010189   -0.0023482    0.99884     -0.022884     0.99884     -0.022884     0.0010189   -0.0023482   
 0.86         0.0010278   -0.0024992    0.99883     -0.024278     0.99883     -0.024278     0.0010278   -0.0024992   
 0.91         0.0010364   -0.0026511    0.99883     -0.025675     0.99883     -0.025675     0.0010364   -0.0026511   
 0.96         0.0010445   -0.002804     0.99882     -0.027073     0.99882     -0.027073     0.0010445   -0.002804    
 1.01         0.0010521   -0.0029577    0.99881     -0.028474     0.99881     -0.028474     0.0010521   -0.0029577   
 1.06         0.0010592   -0.0031122    0.9988      -0.029876     0.9988      -0.029876     0.0010592   -0.0031122   
 1.11         0.0010656   -0.0032674    0.99878     -0.03128      0.99878     -0.03128      0.0010656   -0.0032674   
 1.16         0.0010714   -0.0034234    0.99876     -0.032686     0.99876     -0.032686     0.0010714   -0.0034234   
 1.21         0.0010765   -0.00358      0.99874     -0.034093     0.99874     -0.034093     0.0010765   -0.00358     
 1.26         0.0010809   -0.0037371    0.99871     -0.035501     0.99871     -0.035501     0.0010809   -0.0037371   
 1.31         0.0010845   -0.0038948    0.99868     -0.036911     0.99868     -0.036911     0.0010845   -0.0038948   
 1.36         0.0010874   -0.004053     0.99865     -0.038321     0.99865     -0.038321     0.0010874   -0.004053    
 1.41         0.0010895   -0.0042117    0.99861     -0.039732     0.99861     -0.039732     0.0010895   -0.0042117   
 1.46         0.0010909   -0.0043707    0.99857     -0.041145     0.99857     -0.041145     0.0010909   -0.0043707   
 1.51         0.0010914   -0.00453      0.99853     -0.042557     0.99853     -0.042557     0.0010914   -0.00453     
 1.56         0.0010912   -0.0046897    0.99848     -0.043971     0.99848     -0.043971     0.0010912   -0.0046897   
 1.61         0.0010903   -0.0048497    0.99843     -0.045385     0.99843     -0.045385     0.0010902   -0.0048497   
 1.66         0.0010885   -0.0050098    0.99837     -0.046799     0.99837     -0.046799     0.0010885   -0.0050098   
 1.71         0.001086    -0.0051702    0.99832     -0.048213     0.99832     -0.048213     0.001086    -0.0051702   
 1.76         0.0010827   -0.0053308    0.99825     -0.049628     0.99825     -0.049628     0.0010827   -0.0053308   
 1.81         0.0010787   -0.0054915    0.99819     -0.051043     0.99819     -0.051043     0.0010787   -0.0054915   
 1.86         0.0010739   -0.0056523    0.99812     -0.052458     0.99812     -0.052458     0.0010739   -0.0056523   
 1.91         0.0010684   -0.0058132    0.99805     -0.053873     0.99805     -0.053873     0.0010684   -0.0058132   
 1.96         0.0010622   -0.0059742    0.99798     -0.055288     0.99798     -0.055288     0.0010622   -0.0059742   
 2.01         0.0010553   -0.0061352    0.9979      -0.056703     0.9979      -0.056703     0.0010553   -0.0061352   
 2.06         0.0010476   -0.0062963    0.99782     -0.058118     0.99782     -0.058118     0.0010476   -0.0062963   
 2.11         0.0010393   -0.0064574    0.99773     -0.059533     0.99773     -0.059533     0.0010393   -0.0064574   
 2.16         0.0010303   -0.0066185    0.99764     -0.060948     0.99764     -0.060948     0.0010303   -0.0066185   
 2.21         0.0010206   -0.0067796    0.99755     -0.062362     0.99755     -0.062362     0.0010206   -0.0067796   
 2.26         0.0010103   -0.0069407    0.99746     -0.063776     0.99746     -0.063776     0.0010103   -0.0069407   
 2.31         0.00099932  -0.0071017    0.99736     -0.06519      0.99736     -0.06519      0.00099932  -0.0071017   
 2.36         0.00098771  -0.0072627    0.99726     -0.066604     0.99726     -0.066604     0.0009877   -0.0072627   
 2.41         0.00097547  -0.0074237    0.99716     -0.068017     0.99716     -0.068017     0.00097546  -0.0074237   
 2.46         0.00096261  -0.0075846    0.99705     -0.06943      0.99705     -0.06943      0.0009626   -0.0075846   
 2.51         0.00094914  -0.0077455    0.99694     -0.070843     0.99694     -0.070843     0.00094914  -0.0077455   
 2.56         0.00093508  -0.0079063    0.99683     -0.072255     0.99683     -0.072255     0.00093507  -0.0079063   
 2.61         0.00092042  -0.008067     0.99672     -0.073667     0.99672     -0.073667     0.00092042  -0.008067    
 2.66         0.00090519  -0.0082277    0.9966      -0.075078     0.9966      -0.075078     0.00090518  -0.0082277   
 2.71         0.00088937  -0.0083883    0.99648     -0.076489     0.99648     -0.076489     0.00088937  -0.0083883   
 2.76         0.000873    -0.0085487    0.99636     -0.0779       0.99636     -0.0779       0.00087299  -0.0085487   
 2.81         0.00085606  -0.0087091    0.99623     -0.07931      0.99623     -0.07931      0.00085605  -0.0087092   
 2.86         0.00083857  -0.0088695    0.9961      -0.08072      0.9961      -0.08072      0.00083856  -0.0088695   
 2.91         0.00082053  -0.0090297    0.99597     -0.08213      0.99597     -0.08213      0.00082053  -0.0090297   
 2.96         0.00080196  -0.0091898    0.99584     -0.083539     0.99584     -0.083539     0.00080196  -0.0091898   
 3.01         0.00078286  -0.0093499    0.9957      -0.084947     0.9957      -0.084947     0.00078285  -0.0093499   
 3.06         0.00076322  -0.0095098    0.99556     -0.086355     0.99556     -0.086355     0.00076322  -0.0095098   
 3.11         0.00074307  -0.0096697    0.99542     -0.087763     0.99542     -0.087763     0.00074306  -0.0096697   
 3.16         0.0007224   -0.0098294    0.99528     -0.08917      0.99528     -0.08917      0.00072239  -0.0098294   
 3.21         0.00070122  -0.0099891    0.99513     -0.090577     0.99513     -0.090577     0.00070121  -0.0099891   
 3.26         0.00067953  -0.010149     0.99498     -0.091984     0.99498     -0.091984     0.00067953  -0.010149    
 3.31         0.00065735  -0.010308     0.99483     -0.093389     0.99483     -0.093389     0.00065734  -0.010308    
 3.36         0.00063466  -0.010467     0.99467     -0.094795     0.99467     -0.094795     0.00063465  -0.010467    
 3.41         0.00061148  -0.010627     0.99452     -0.0962       0.99452     -0.0962       0.00061148  -0.010627    
 3.46         0.00058782  -0.010786     0.99436     -0.097605     0.99436     -0.097605     0.00058781  -0.010786    
 3.51         0.00056366  -0.010945     0.9942      -0.099009     0.9942      -0.099009     0.00056366  -0.010945    
 3.56         0.00053903  -0.011104     0.99403     -0.10041      0.99403     -0.10041      0.00053902  -0.011104    
 3.61         0.00051392  -0.011263     0.99386     -0.10182      0.99386     -0.10182      0.00051391  -0.011263    
 3.66         0.00048833  -0.011422     0.9937      -0.10322      0.9937      -0.10322      0.00048832  -0.011422    
 3.71         0.00046227  -0.01158      0.99352     -0.10462      0.99352     -0.10462      0.00046226  -0.01158     
 3.76         0.00043574  -0.011739     0.99335     -0.10602      0.99335     -0.10602      0.00043574  -0.011739    
 3.81         0.00040875  -0.011897     0.99318     -0.10743      0.99318     -0.10743      0.00040874  -0.011897    
 3.86         0.00038129  -0.012056     0.993       -0.10883      0.993       -0.10883      0.00038128  -0.012056    
 3.91         0.00035337  -0.012214     0.99282     -0.11023      0.99282     -0.11023      0.00035336  -0.012214    
 3.96         0.00032499  -0.012372     0.99264     -0.11163      0.99264     -0.11163      0.00032498  -0.012372    
 4.01         0.00029615  -0.012531     0.99245     -0.11303      0.99245     -0.11303      0.00029614  -0.012531    
 4.06         0.00026686  -0.012689     0.99226     -0.11443      0.99226     -0.11443      0.00026685  -0.012689    
 4.11         0.00023712  -0.012847     0.99207     -0.11583      0.99207     -0.11583      0.00023711  -0.012847    
 4.16         0.00020692  -0.013005     0.99188     -0.11723      0.99188     -0.11723      0.00020691  -0.013005    
 4.21         0.00017628  -0.013162     0.99169     -0.11862      0.99169     -0.11862      0.00017627  -0.013162    
 4.26         0.00014519  -0.01332      0.99149     -0.12002      0.99149     -0.12002      0.00014518  -0.01332     
 4.31         0.00011365  -0.013478     0.9913      -0.12142      0.9913      -0.12142      0.00011364  -0.013478    
 4.36         8.1671e-5   -0.013635     0.9911      -0.12282      0.9911      -0.12282      8.1664e-5   -0.013635    
 4.41         4.9248e-5   -0.013793     0.9909      -0.12421      0.9909      -0.12421      4.9241e-5   -0.013793    
 4.46         1.6385e-5   -0.01395      0.99069     -0.12561      0.99069     -0.12561      1.6377e-5   -0.01395     
 4.51        -1.6919e-5   -0.014107     0.99049     -0.12701      0.99049     -0.12701     -1.6926e-5   -0.014107    
 4.56        -5.066e-5    -0.014265     0.99028     -0.1284       0.99028     -0.1284      -5.0668e-5   -0.014265    
 4.61        -8.4839e-5   -0.014422     0.99007     -0.1298       0.99007     -0.1298      -8.4847e-5   -0.014422    
 4.66        -0.00011945  -0.014579     0.98986     -0.13119      0.98986     -0.13119     -0.00011946  -0.014579    
 4.71        -0.0001545   -0.014736     0.98964     -0.13259      0.98964     -0.13259     -0.00015451  -0.014736    
 4.76        -0.00018999  -0.014893     0.98943     -0.13398      0.98943     -0.13398     -0.00018999  -0.014893    
 4.81        -0.0002259   -0.015049     0.98921     -0.13538      0.98921     -0.13538     -0.00022591  -0.015049    
 4.86        -0.00026225  -0.015206     0.98899     -0.13677      0.98899     -0.13677     -0.00026226  -0.015206    
 4.91        -0.00029903  -0.015363     0.98877     -0.13816      0.98877     -0.13816     -0.00029904  -0.015363    
 4.96        -0.00033624  -0.015519     0.98854     -0.13955      0.98854     -0.13955     -0.00033625  -0.015519    
 5.01        -0.00037388  -0.015676     0.98832     -0.14095      0.98832     -0.14095     -0.00037388  -0.015676    
 5.06        -0.00041194  -0.015832     0.98809     -0.14234      0.98809     -0.14234     -0.00041195  -0.015832    
 5.11        -0.00045044  -0.015989     0.98786     -0.14373      0.98786     -0.14373     -0.00045044  -0.015989    
 5.16        -0.00048936  -0.016145     0.98763     -0.14512      0.98763     -0.14512     -0.00048936  -0.016145    
 5.21        -0.0005287   -0.016301     0.98739     -0.14651      0.98739     -0.14651     -0.00052871  -0.016301    
 5.26        -0.00056847  -0.016457     0.98716     -0.1479       0.98716     -0.1479      -0.00056848  -0.016457    
 5.31        -0.00060867  -0.016613     0.98692     -0.14929      0.98692     -0.14929     -0.00060868  -0.016613    
 5.36        -0.00064929  -0.016769     0.98668     -0.15068      0.98668     -0.15068     -0.0006493   -0.016769    
 5.41        -0.00069033  -0.016925     0.98644     -0.15207      0.98644     -0.15207     -0.00069034  -0.016925    
 5.46        -0.0007318   -0.017081     0.9862      -0.15346      0.9862      -0.15346     -0.00073181  -0.017081    
 5.51        -0.00077369  -0.017236     0.98595     -0.15485      0.98595     -0.15485     -0.0007737   -0.017236    
 5.56        -0.000816    -0.017392     0.98571     -0.15624      0.98571     -0.15624     -0.000816    -0.017392    
 5.61        -0.00085873  -0.017548     0.98546     -0.15763      0.98546     -0.15763     -0.00085874  -0.017548    
 5.66        -0.00090188  -0.017703     0.98521     -0.15902      0.98521     -0.15902     -0.00090189  -0.017703    
 5.71        -0.00094545  -0.017859     0.98496     -0.1604       0.98496     -0.1604      -0.00094546  -0.017859    
 5.76        -0.00098944  -0.018014     0.9847      -0.16179      0.9847      -0.16179     -0.00098945  -0.018014    
 5.81        -0.0010338   -0.018169     0.98445     -0.16318      0.98445     -0.16318     -0.0010339   -0.018169    
 5.86        -0.0010787   -0.018324     0.98419     -0.16457      0.98419     -0.16457     -0.0010787   -0.018324    
 5.91        -0.0011239   -0.01848      0.98393     -0.16595      0.98393     -0.16595     -0.0011239   -0.01848     
 5.96        -0.0011696   -0.018635     0.98367     -0.16734      0.98367     -0.16734     -0.0011696   -0.018635    
 6.01        -0.0012157   -0.01879      0.98341     -0.16872      0.98341     -0.16872     -0.0012157   -0.01879     
 6.06        -0.0012622   -0.018944     0.98314     -0.17011      0.98314     -0.17011     -0.0012622   -0.018944    
 6.11        -0.0013091   -0.019099     0.98288     -0.17149      0.98288     -0.17149     -0.0013091   -0.019099    
 6.16        -0.0013564   -0.019254     0.98261     -0.17288      0.98261     -0.17288     -0.0013564   -0.019254    
 6.21        -0.0014042   -0.019408     0.98234     -0.17426      0.98234     -0.17426     -0.0014042   -0.019408    
 6.26        -0.0014523   -0.019563     0.98207     -0.17564      0.98207     -0.17564     -0.0014523   -0.019563    
 6.31        -0.0015009   -0.019717     0.98179     -0.17703      0.98179     -0.17703     -0.0015009   -0.019717    
 6.36        -0.0015499   -0.019872     0.98152     -0.17841      0.98152     -0.17841     -0.0015499   -0.019872    
 6.41        -0.0015993   -0.020026     0.98124     -0.17979      0.98124     -0.17979     -0.0015994   -0.020026    
 6.46        -0.0016492   -0.020181     0.98097     -0.18118      0.98097     -0.18118     -0.0016492   -0.020181    
 6.51        -0.0016995   -0.020335     0.98069     -0.18256      0.98069     -0.18256     -0.0016995   -0.020335    
 6.56        -0.0017502   -0.020489     0.98041     -0.18394      0.98041     -0.18394     -0.0017502   -0.020489    
 6.61        -0.0018013   -0.020643     0.98012     -0.18532      0.98012     -0.18532     -0.0018013   -0.020643    
 6.66        -0.0018528   -0.020797     0.97984     -0.1867       0.97984     -0.1867      -0.0018528   -0.020797    
 6.71        -0.0019048   -0.020951     0.97955     -0.18808      0.97955     -0.18808     -0.0019048   -0.020951    
 6.76        -0.0019572   -0.021105     0.97927     -0.18946      0.97927     -0.18946     -0.0019572   -0.021105    
 6.81        -0.00201     -0.021259     0.97898     -0.19084      0.97898     -0.19084     -0.00201     -0.021259    
 6.86        -0.0020632   -0.021412     0.97869     -0.19222      0.97869     -0.19222     -0.0020632   -0.021412    
 6.91        -0.0021168   -0.021566     0.9784      -0.1936       0.9784      -0.1936      -0.0021168   -0.021566    
 6.96        -0.0021709   -0.021719     0.97811     -0.19498      0.97811     -0.19498     -0.0021709   -0.021719    
 7.01        -0.0022253   -0.021873     0.97781     -0.19636      0.97781     -0.19636     -0.0022253   -0.021873    
 7.06        -0.0022802   -0.022026     0.97752     -0.19773      0.97752     -0.19773     -0.0022802   -0.022026    
 7.11        -0.0023355   -0.02218      0.97722     -0.19911      0.97722     -0.19911     -0.0023355   -0.02218     
 7.16        -0.0023912   -0.022333     0.97692     -0.20049      0.97692     -0.20049     -0.0023912   -0.022333    
 7.21        -0.0024474   -0.022486     0.97662     -0.20186      0.97662     -0.20186     -0.0024474   -0.022486    
 7.26        -0.0025039   -0.022639     0.97632     -0.20324      0.97632     -0.20324     -0.0025039   -0.022639    
 7.31        -0.0025609   -0.022792     0.97602     -0.20462      0.97602     -0.20462     -0.0025609   -0.022792    
 7.36        -0.0026182   -0.022945     0.97571     -0.20599      0.97571     -0.20599     -0.0026182   -0.022945    
 7.41        -0.002676    -0.023097     0.9754      -0.20737      0.9754      -0.20737     -0.002676    -0.023097    
 7.46        -0.0027342   -0.02325      0.9751      -0.20874      0.9751      -0.20874     -0.0027342   -0.02325     
 7.51        -0.0027928   -0.023402     0.97479     -0.21011      0.97479     -0.21011     -0.0027928   -0.023402    
 7.56        -0.0028518   -0.023555     0.97448     -0.21149      0.97448     -0.21149     -0.0028519   -0.023555    
 7.61        -0.0029113   -0.023707     0.97416     -0.21286      0.97416     -0.21286     -0.0029113   -0.023707    
 7.66        -0.0029711   -0.023859     0.97385     -0.21423      0.97385     -0.21423     -0.0029711   -0.023859    
 7.71        -0.0030314   -0.024011     0.97353     -0.21561      0.97353     -0.21561     -0.0030314   -0.024011    
 7.76        -0.003092    -0.024163     0.97322     -0.21698      0.97322     -0.21698     -0.003092    -0.024163    
 7.81        -0.0031531   -0.024315     0.9729      -0.21835      0.9729      -0.21835     -0.0031531   -0.024315    
 7.86        -0.0032146   -0.024467     0.97258     -0.21972      0.97258     -0.21972     -0.0032146   -0.024467    
 7.91        -0.0032765   -0.024618     0.97226     -0.22109      0.97226     -0.22109     -0.0032765   -0.024619    
 7.96        -0.0033387   -0.02477      0.97193     -0.22246      0.97193     -0.22246     -0.0033388   -0.02477     
 8.01        -0.0034014   -0.024921     0.97161     -0.22383      0.97161     -0.22383     -0.0034015   -0.024921    
 8.06        -0.0034645   -0.025072     0.97128     -0.2252       0.97128     -0.2252      -0.0034646   -0.025072    
 8.11        -0.003528    -0.025224     0.97095     -0.22656      0.97095     -0.22656     -0.0035281   -0.025224    
 8.16        -0.0035919   -0.025374     0.97062     -0.22793      0.97062     -0.22793     -0.003592    -0.025374    
 8.21        -0.0036563   -0.025525     0.97029     -0.2293       0.97029     -0.2293      -0.0036563   -0.025525    
 8.26        -0.003721    -0.025676     0.96996     -0.23066      0.96996     -0.23066     -0.003721    -0.025676    
 8.31        -0.0037861   -0.025826     0.96962     -0.23203      0.96962     -0.23203     -0.0037861   -0.025826    
 8.36        -0.0038516   -0.025977     0.96929     -0.2334       0.96929     -0.2334      -0.0038516   -0.025977    
 8.41        -0.0039175   -0.026127     0.96895     -0.23476      0.96895     -0.23476     -0.0039175   -0.026127    
 8.46        -0.0039838   -0.026277     0.96861     -0.23612      0.96861     -0.23612     -0.0039838   -0.026277    
 8.51        -0.0040505   -0.026427     0.96827     -0.23749      0.96827     -0.23749     -0.0040506   -0.026427    
 8.56        -0.0041176   -0.026576     0.96792     -0.23885      0.96792     -0.23885     -0.0041177   -0.026576    
 8.61        -0.0041852   -0.026726     0.96758     -0.24021      0.96758     -0.24021     -0.0041852   -0.026726    
 8.66        -0.0042531   -0.026875     0.96723     -0.24158      0.96723     -0.24158     -0.0042531   -0.026875    
 8.71        -0.0043214   -0.027024     0.96688     -0.24294      0.96688     -0.24294     -0.0043214   -0.027024    
 8.76        -0.0043901   -0.027173     0.96653     -0.2443       0.96653     -0.2443      -0.0043901   -0.027173    
 8.81        -0.0044591   -0.027322     0.96618     -0.24566      0.96618     -0.24566     -0.0044592   -0.027322    
 8.86        -0.0045286   -0.027471     0.96583     -0.24702      0.96583     -0.24702     -0.0045286   -0.027471    
 8.91        -0.0045985   -0.027619     0.96547     -0.24838      0.96547     -0.24838     -0.0045985   -0.027619    
 8.96        -0.0046688   -0.027767     0.96512     -0.24973      0.96512     -0.24973     -0.0046688   -0.027767    
 9.01        -0.0047394   -0.027915     0.96476     -0.25109      0.96476     -0.25109     -0.0047394   -0.027915    
 9.06        -0.0048105   -0.028063     0.9644      -0.25245      0.9644      -0.25245     -0.0048105   -0.028063    
 9.11        -0.0048819   -0.028211     0.96403     -0.2538       0.96403     -0.2538      -0.0048819   -0.028211    
 9.16        -0.0049537   -0.028358     0.96367     -0.25516      0.96367     -0.25516     -0.0049537   -0.028358    
 9.21        -0.0050259   -0.028505     0.9633      -0.25651      0.9633      -0.25651     -0.0050259   -0.028505    
 9.26        -0.0050985   -0.028652     0.96294     -0.25787      0.96294     -0.25787     -0.0050985   -0.028652    
 9.31        -0.0051715   -0.028799     0.96257     -0.25922      0.96257     -0.25922     -0.0051715   -0.028799    
 9.36        -0.0052449   -0.028946     0.9622      -0.26058      0.9622      -0.26058     -0.0052449   -0.028946    
 9.41        -0.0053186   -0.029092     0.96182     -0.26193      0.96182     -0.26193     -0.0053186   -0.029092    
 9.46        -0.0053928   -0.029238     0.96145     -0.26328      0.96145     -0.26328     -0.0053928   -0.029238    
 9.51        -0.0054673   -0.029384     0.96107     -0.26463      0.96107     -0.26463     -0.0054673   -0.029384    
 9.56        -0.0055422   -0.02953      0.96069     -0.26598      0.96069     -0.26598     -0.0055422   -0.02953     
 9.61        -0.0056174   -0.029675     0.96031     -0.26733      0.96031     -0.26733     -0.0056175   -0.029675    
 9.66        -0.0056931   -0.02982      0.95993     -0.26868      0.95993     -0.26868     -0.0056931   -0.02982     
 9.71        -0.0057691   -0.029965     0.95954     -0.27002      0.95954     -0.27002     -0.0057692   -0.029965    
 9.76        -0.0058455   -0.03011      0.95916     -0.27137      0.95916     -0.27137     -0.0058456   -0.03011     
 9.81        -0.0059223   -0.030254     0.95877     -0.27272      0.95877     -0.27272     -0.0059224   -0.030254    
 9.86        -0.0059995   -0.030398     0.95838     -0.27406      0.95838     -0.27406     -0.0059995   -0.030398    
 9.91        -0.006077    -0.030542     0.95798     -0.27541      0.95798     -0.27541     -0.0060771   -0.030542    
 9.96        -0.006155    -0.030686     0.95759     -0.27675      0.95759     -0.27675     -0.006155    -0.030686    
 10.01       -0.0062332   -0.030829     0.95719     -0.27809      0.95719     -0.27809     -0.0062333   -0.030829    
 10.06       -0.0063119   -0.030972     0.9568      -0.27943      0.9568      -0.27943     -0.0063119   -0.030972    
 10.11       -0.0063909   -0.031115     0.9564      -0.28078      0.9564      -0.28078     -0.006391    -0.031115    
 10.16       -0.0064703   -0.031258     0.95599     -0.28212      0.95599     -0.28212     -0.0064704   -0.031258    
 10.21       -0.0065501   -0.0314       0.95559     -0.28346      0.95559     -0.28346     -0.0065501   -0.0314      
 10.26       -0.0066302   -0.031542     0.95518     -0.28479      0.95518     -0.28479     -0.0066303   -0.031542    
 10.31       -0.0067108   -0.031684     0.95477     -0.28613      0.95477     -0.28613     -0.0067108   -0.031684    
 10.36       -0.0067916   -0.031825     0.95436     -0.28747      0.95436     -0.28747     -0.0067917   -0.031825    
 10.41       -0.0068729   -0.031966     0.95395     -0.28881      0.95395     -0.28881     -0.0068729   -0.031966    
 10.46       -0.0069545   -0.032107     0.95354     -0.29014      0.95354     -0.29014     -0.0069545   -0.032107    
 10.51       -0.0070364   -0.032248     0.95312     -0.29148      0.95312     -0.29148     -0.0070365   -0.032248    
 10.56       -0.0071188   -0.032388     0.9527      -0.29281      0.9527      -0.29281     -0.0071188   -0.032388    
 10.61       -0.0072015   -0.032528     0.95228     -0.29414      0.95228     -0.29414     -0.0072015   -0.032528    
 10.66       -0.0072845   -0.032667     0.95186     -0.29547      0.95186     -0.29547     -0.0072845   -0.032667    
 10.71       -0.0073679   -0.032807     0.95143     -0.2968       0.95143     -0.2968      -0.0073679   -0.032807    
 10.76       -0.0074517   -0.032946     0.951       -0.29814      0.951       -0.29814     -0.0074517   -0.032946    
 10.81       -0.0075358   -0.033084     0.95057     -0.29946      0.95057     -0.29946     -0.0075359   -0.033084    
 10.86       -0.0076203   -0.033223     0.95014     -0.30079      0.95014     -0.30079     -0.0076203   -0.033223    
 10.91       -0.0077051   -0.033361     0.94971     -0.30212      0.94971     -0.30212     -0.0077052   -0.033361    
 10.96       -0.0077903   -0.033498     0.94927     -0.30345      0.94927     -0.30345     -0.0077904   -0.033498    
 11.01       -0.0078759   -0.033636     0.94884     -0.30477      0.94884     -0.30477     -0.0078759   -0.033636    
 11.06       -0.0079618   -0.033773     0.9484      -0.3061       0.9484      -0.3061      -0.0079618   -0.033773    
 11.11       -0.0080481   -0.033909     0.94795     -0.30742      0.94795     -0.30742     -0.0080481   -0.033909    
 11.16       -0.0081347   -0.034046     0.94751     -0.30874      0.94751     -0.30874     -0.0081347   -0.034046    
 11.21       -0.0082216   -0.034182     0.94706     -0.31006      0.94706     -0.31006     -0.0082217   -0.034182    
 11.26       -0.0083089   -0.034317     0.94661     -0.31139      0.94661     -0.31139     -0.008309    -0.034317    
 11.31       -0.0083966   -0.034453     0.94616     -0.31271      0.94616     -0.31271     -0.0083966   -0.034453    
 11.36       -0.0084846   -0.034587     0.94571     -0.31402      0.94571     -0.31402     -0.0084846   -0.034587    
 11.41       -0.0085729   -0.034722     0.94525     -0.31534      0.94525     -0.31534     -0.008573    -0.034722    
 11.46       -0.0086616   -0.034856     0.9448      -0.31666      0.9448      -0.31666     -0.0086617   -0.034856    
 11.51       -0.0087507   -0.03499      0.94434     -0.31797      0.94434     -0.31797     -0.0087507   -0.03499     
 11.56       -0.0088401   -0.035124     0.94387     -0.31929      0.94387     -0.31929     -0.0088401   -0.035124    
 11.61       -0.0089298   -0.035257     0.94341     -0.3206       0.94341     -0.3206      -0.0089298   -0.035257    
 11.66       -0.0090199   -0.03539      0.94294     -0.32192      0.94294     -0.32192     -0.0090199   -0.03539     
 11.71       -0.0091103   -0.035522     0.94247     -0.32323      0.94247     -0.32323     -0.0091103   -0.035522    
 11.76       -0.009201    -0.035654     0.942       -0.32454      0.942       -0.32454     -0.0092011   -0.035654    
 11.81       -0.0092921   -0.035786     0.94153     -0.32585      0.94153     -0.32585     -0.0092922   -0.035786    
 11.86       -0.0093836   -0.035917     0.94105     -0.32716      0.94105     -0.32716     -0.0093836   -0.035917    
 11.91       -0.0094753   -0.036048     0.94058     -0.32847      0.94058     -0.32847     -0.0094754   -0.036048    
 11.96       -0.0095674   -0.036179     0.9401      -0.32978      0.9401      -0.32978     -0.0095675   -0.036179    
 12.01       -0.0096599   -0.036309     0.93961     -0.33108      0.93961     -0.33108     -0.0096599   -0.036309    
 12.06       -0.0097526   -0.036439     0.93913     -0.33239      0.93913     -0.33239     -0.0097527   -0.036439    
 12.11       -0.0098457   -0.036568     0.93864     -0.33369      0.93864     -0.33369     -0.0098458   -0.036568    
 12.16       -0.0099392   -0.036697     0.93815     -0.33499      0.93815     -0.33499     -0.0099392   -0.036697    
 12.21       -0.010033    -0.036826     0.93766     -0.3363       0.93766     -0.3363      -0.010033    -0.036826    
 12.26       -0.010127    -0.036954     0.93717     -0.3376       0.93717     -0.3376      -0.010127    -0.036954    
 12.31       -0.010221    -0.037082     0.93667     -0.3389       0.93667     -0.3389      -0.010222    -0.037082    
 12.36       -0.010316    -0.037209     0.93618     -0.3402       0.93618     -0.3402      -0.010316    -0.037209    
 12.41       -0.010411    -0.037336     0.93567     -0.34149      0.93567     -0.34149     -0.010411    -0.037336    
 12.46       -0.010507    -0.037463     0.93517     -0.34279      0.93517     -0.34279     -0.010507    -0.037463    
 12.51       -0.010602    -0.037589     0.93467     -0.34409      0.93467     -0.34409     -0.010603    -0.037589    